------------------------------------------------------------
          Invoking FHI-aims ...

          When using FHI-aims, please cite the following reference:

            Volker Blum, Ralf Gehrke, Felix Hanke, Paula Havu,
            Ville Havu, Xinguo Ren, Karsten Reuter, and Matthias Scheffler,
            'Ab Initio Molecular Simulations with Numeric Atom-Centered Orbitals',
            Computer Physics Communications 180, 2175-2196 (2009)

          In addition, many other developments in FHI-aims are likely important for
          your particular application. If so, please cite them. A partial list of references
          is written at the end of this file. Thank you for giving credit to the authors
          of these developments.

          For general information about FHI-aims please find us at

            https://fhi-aims.org

          Online tutorials can be found at

            https://fhi-aims-club.gitlab.io/tutorials/tutorials-overview/

          For any questions about FHI-aims, please visit our slack channel at

            https://fhi-aims.slack.com

          and our main development and support site at

            https://aims-git.rz-berlin.mpg.de .

          The latter site, in particular, has a wiki to collect information, as well
          as an issue tracker to log discussions, suggest improvements, and report issues
          or bugs. https://aims-git.rz-berlin.mpg.de is also the main development site
          of the project and all new and updated code versions can be obtained there.
          Please send an email to aims-coordinators@fhi-berlin.mpg.de and we will add
          you to these sites. They are for you and everyone is welcome there.

------------------------------------------------------------



  Date     :  20250806, Time     :  170804.705
  Time zero on CPU 1             :   0.155371600000000E+01  s.
  Internal wall clock time zero  :           523732084.705  s.

  FHI-aims created a unique identifier for this run for later identification
  aims_uuid : 7EFBD644-C8F8-4D73-ABA3-AA10F21CCCC9

  Build configuration of the current instance of FHI-aims
  -------------------------------------------------------
  FHI-aims version      : 250730
  Commit number         : 6ff7206bc
  CMake host system     : Linux-6.4.0-150600.23.33-default
  CMake version         : 3.30.0
  OS Distribution       : SUSE Linux Enterprise Server 15 SP6
  Built on              : Intel(R) Xeon(R) Platinum 8360Y CPU @ 2.40GHz
  Fortran compiler      : /mpcdf/soft/SLE_15/packages/skylake/openmpi_gpu/cuda_12.6-12.6.1-gcc_13-13.1.0/5.0.7/bin/mpif90 (GNU) version 13.1.0
  Fortran compiler flags: -I/u/zklou/projects/aims/250806/dependencies/elpa_2025.01.002/installed/include/elpa-2025.01.002/modules -I/mpcdf/soft/SLE_15/packages/x86_64/intel_oneapi/2025.2/mkl/latest/include/intel64/lp64 -I/mpcdf/soft/SLE_15/packages/skylake/hdf5/gcc_13-13.1.0-openmpi_5.0-5.0.7/1.12.2/include -g -O2 -D_FORTIFY_SOURCE=2 -fstack-protector-strong -funwind-tables -fasynchronous-unwind-tables -fstack-clash-protection -march=skylake-avx512 -ffree-line-length-none -fallow-argument-mismatch -O3
  C compiler            : /mpcdf/soft/SLE_15/packages/x86_64/gcc/13.1.0/bin/gcc (GNU) version 13.1.0
  C compiler flags      : -I/u/zklou/projects/aims/250806/dependencies/elpa_2025.01.002/installed/include/elpa-2025.01.002/modules -I/mpcdf/soft/SLE_15/packages/x86_64/intel_oneapi/2025.2/mkl/latest/include/intel64/lp64 /mpcdf/soft/SLE_15/packages/skylake/hdf5/gcc_13-13.1.0-openmpi_5.0-5.0.7/1.12.2/include -c -O3 -DNDEBUG
  C++ compiler          : /mpcdf/soft/SLE_15/packages/x86_64/gcc/13.1.0/bin/g++ (GNU) version 13.1.0
  C++ compiler flags    : -O3 -g -march=skylake-avx512 -O3 -DNDEBUG
  HIP compiler          :
  HIP compiler flags    :
  HIP GPU arch          :
  Using MPI
  Using ScaLAPACK
  Using LibXC
  Using CUDA
  Using i-PI
  Using HDF5
  Using RLSY
  Linking against: /mpcdf/soft/SLE_15/packages/x86_64/cuda/12.6.1/lib64/libcublas.so
                   /mpcdf/soft/SLE_15/packages/x86_64/cuda/12.6.1/lib64/libcudart.so
                   /mpcdf/soft/SLE_15/packages/skylake/hdf5/gcc_13-13.1.0-openmpi_5.0-5.0.7/1.12.2/lib/libhdf5.so
                   /mpcdf/soft/SLE_15/packages/skylake/hdf5/gcc_13-13.1.0-openmpi_5.0-5.0.7/1.12.2/lib/libhdf5_fortran.so
                   /mpcdf/soft/SLE_15/packages/skylake/hdf5/gcc_13-13.1.0-openmpi_5.0-5.0.7/1.12.2/lib/libhdf5_hl.so
                   /mpcdf/soft/SLE_15/packages/skylake/hdf5/gcc_13-13.1.0-openmpi_5.0-5.0.7/1.12.2/lib/libhdf5hl_fortran.so

  Using       64 parallel tasks.
  Task        0 on host adag061 reporting.
  Task        1 on host adag061 reporting.
  Task        2 on host adag061 reporting.
  Task        3 on host adag061 reporting.
  Task        4 on host adag061 reporting.
  Task        5 on host adag061 reporting.
  Task        6 on host adag061 reporting.
  Task        7 on host adag061 reporting.
  Task        8 on host adag061 reporting.
  Task        9 on host adag061 reporting.
  Task       10 on host adag061 reporting.
  Task       11 on host adag061 reporting.
  Task       12 on host adag061 reporting.
  Task       13 on host adag061 reporting.
  Task       14 on host adag061 reporting.
  Task       15 on host adag061 reporting.
  Task       16 on host adag061 reporting.
  Task       17 on host adag061 reporting.
  Task       18 on host adag061 reporting.
  Task       19 on host adag061 reporting.
  Task       20 on host adag061 reporting.
  Task       21 on host adag061 reporting.
  Task       22 on host adag061 reporting.
  Task       23 on host adag061 reporting.
  Task       24 on host adag061 reporting.
  Task       25 on host adag061 reporting.
  Task       26 on host adag061 reporting.
  Task       27 on host adag061 reporting.
  Task       28 on host adag061 reporting.
  Task       29 on host adag061 reporting.
  Task       30 on host adag061 reporting.
  Task       31 on host adag061 reporting.
  Task       32 on host adag061 reporting.
  Task       33 on host adag061 reporting.
  Task       34 on host adag061 reporting.
  Task       35 on host adag061 reporting.
  Task       36 on host adag061 reporting.
  Task       37 on host adag061 reporting.
  Task       38 on host adag061 reporting.
  Task       39 on host adag061 reporting.
  Task       40 on host adag061 reporting.
  Task       41 on host adag061 reporting.
  Task       42 on host adag061 reporting.
  Task       43 on host adag061 reporting.
  Task       44 on host adag061 reporting.
  Task       45 on host adag061 reporting.
  Task       46 on host adag061 reporting.
  Task       47 on host adag061 reporting.
  Task       48 on host adag061 reporting.
  Task       49 on host adag061 reporting.
  Task       50 on host adag061 reporting.
  Task       51 on host adag061 reporting.
  Task       52 on host adag061 reporting.
  Task       53 on host adag061 reporting.
  Task       54 on host adag061 reporting.
  Task       55 on host adag061 reporting.
  Task       56 on host adag061 reporting.
  Task       57 on host adag061 reporting.
  Task       58 on host adag061 reporting.
  Task       59 on host adag061 reporting.
  Task       60 on host adag061 reporting.
  Task       61 on host adag061 reporting.
  Task       62 on host adag061 reporting.
  Task       63 on host adag061 reporting.

  Obtaining array dimensions for all initial allocations:
  
  -----------------------------------------------------------------------
  Parsing control.in (first pass over file, find array dimensions only).
  The contents of control.in will be repeated verbatim below
  unless switched off by setting 'verbatim_writeout .false.' .
  in the first line of control.in .
  -----------------------------------------------------------------------
  
  xc                 pbe
  relativistic       atomic_zora scalar
  k_grid 8 8 1
  spin               none
  charge             0.
  # use_dipole_correction: for surface slab calculations
  use_dipole_correction
  # use_symmetry_analysis .false.
  
  # elsi_restart read_and_write 1
  default_max_l_prodbas 6
  default_prodbas_acc 1e-4
  wave_threshold 1e-6
  
  output band  0.66667 0.33333 0.00000  0.00000 0.00000 0.00000   11 K G
  output band  0.00000 0.00000 0.00000  0.50000 0.00000 0.00000   9 G M
  output band  0.50000 0.00000 0.00000  0.66667 0.33333 0.00000   6 M K
  
  output_rs_matrices HDF5
  
  
  ################################################################################
  #
  #  FHI-aims code project
  #  VB, Fritz-Haber Institut, 2009
  #
  #  Suggested "light" defaults for C atom (to be pasted into control.in file)
  #  Be sure to double-check any results obtained with these settings for post-processing,
  #  e.g., with the "tight" defaults and larger basis sets.
  #
  ################################################################################
    species        C
  #     global species definitions
      nucleus             6
      mass                12.0107
  #
      l_hartree           4
  #
      cut_pot             3.5  1.5  1.0
      basis_dep_cutoff    1e-4
  #
      radial_base         34 5.0
      radial_multiplier   1
      angular_grids specified
        division   0.3326   50
        division   0.5710  110
        division   0.7727  194
        division   0.8772  302
  #      division   0.9334  434
  #      division   0.9625  590
  #      division   0.9924  770
  #      division   1.0230  974
  #      division   1.4589 1202
  #     outer_grid  974
       outer_grid 302
  ################################################################################
  #
  #  Definition of "minimal" basis
  #
  ################################################################################
  #     valence basis states
      valence      2  s   2.
      valence      2  p   2.
  #     ion occupancy
      ion_occ      2  s   1.
      ion_occ      2  p   1.
  ################################################################################
  #
  #  Suggested additional basis functions. For production calculations,
  #  uncomment them one after another (the most important basis functions are
  #  listed first).
  #
  #  Constructed for dimers: 1.0 A, 1.25 A, 1.5 A, 2.0 A, 3.0 A
  #
  ################################################################################
  #  "First tier" - improvements: -1214.57 meV to -155.61 meV
       hydro 2 p 1.7
       hydro 3 d 6
       hydro 2 s 4.9
  #  "Second tier" - improvements: -67.75 meV to -5.23 meV
  #     hydro 4 f 9.8
  #     hydro 3 p 5.2
  #     hydro 3 s 4.3
  #     hydro 5 g 14.4
  #     hydro 3 d 6.2
  #  "Third tier" - improvements: -2.43 meV to -0.60 meV
  #     hydro 2 p 5.6
  #     hydro 2 s 1.4
  #     hydro 3 d 4.9
  #     hydro 4 f 11.2
  #  "Fourth tier" - improvements: -0.39 meV to -0.18 meV
  #     hydro 2 p 2.1
  #     hydro 5 g 16.4
  #     hydro 4 d 13.2
  #     hydro 3 s 13.6
  #     hydro 4 f 17.6
  #  Further basis functions - improvements: -0.08 meV and below
  #     hydro 3 s 2
  #     hydro 3 p 6
  #     hydro 4 d 20
  
  -----------------------------------------------------------------------
  Completed first pass over input file control.in .
  -----------------------------------------------------------------------
  
  
  -----------------------------------------------------------------------
  Parsing geometry.in (first pass over file, find array dimensions only).
  The contents of geometry.in will be repeated verbatim below
  unless switched off by setting 'verbatim_writeout .false.' .
  in the first line of geometry.in .
  -----------------------------------------------------------------------
  
  #===============================================================================
  # Created using the Atomic Simulation Environment (ASE)
  
  # Wed Aug  6 13:21:35 2025
  
  #=======================================================
  lattice_vector 2.4594999999999998 0.0000000000000000 0.0000000000000000
  lattice_vector 1.2297499999999999 2.1299899999999998 0.0000000000000000
  lattice_vector 0.0000000000000000 0.0000000000000000 100.0000000000000000
  atom 0.0000000000000000 0.0000000000000000 48.3249999499999987 C
  atom 1.2297499999999999 0.7099965000000000 48.3249999499999987 C
  atom 3.6892499999999999 2.1299899999999998 51.6750000500000013 C
  atom 2.4594999999999998 1.4199934999999999 51.6750000500000013 C
  
  -----------------------------------------------------------------------
  Completed first pass over input file geometry.in .
  -----------------------------------------------------------------------
  

  Basic array size parameters:
  | Number of species                 :        1
  | Number of atoms                   :        4
  | Number of lattice vectors         :        3
  | Max. basis fn. angular momentum   :        2
  | Max. atomic/ionic basis occupied n:        2
  | Max. number of basis fn. types    :        2
  | Max. radial fns per species/type  :        3
  | Max. logarithmic grid size        :     1277
  | Max. radial integration grid size :       34
  | Max. angular integration grid size:      302
  | Max. angular grid division number :        8
  | Radial grid for Hartree potential :     1277
  | Number of spin channels           :        1

  Definition of standardized fundamental physical constants in this FHI-aims run:
  | Using the set of values used in FHI-aims up to 2024, which combines values from
  | different CODATA sets - see constants.f90.
  | Use the 'codata' keyword in control.in to change this selection.

  Memory overcommitment is allowed on your operating system.

------------------------------------------------------------
          Reading file control.in.
------------------------------------------------------------
  XC: Using PBE gradient-corrected functionals.
  Scalar relativistic treatment of kinetic energy: on-site free-atom approximation to ZORA.
  Found k-point grid:         8         8         1
  Spin treatment: No spin polarisation.
  Charge =   0.000000E+00: Neutral system requested explicitly.
  Using dipole correction.
  Threshold value for wave function integration:  0.1000E-05

  Plot band    1
  | begin  0.666670  0.333330  0.000000
  | end    0.000000  0.000000  0.000000
  | number of points:   11

  Plot band    2
  | begin  0.000000  0.000000  0.000000
  | end    0.500000  0.000000  0.000000
  | number of points:    9

  Plot band    3
  | begin  0.500000  0.000000  0.000000
  | end    0.666670  0.333330  0.000000
  | number of points:    6
  Output of real space matrices in HDF5 format is requested.

  Reading configuration options for species C                   .
  | Found nuclear charge :   6.0000
  | Found atomic mass :    12.010700000000000      amu
  | Found l_max for Hartree potential  :   4
  | Found cutoff potl. onset [A], width [A], scale factor :    3.50000    1.50000    1.00000
  | Threshold for basis-dependent cutoff potential is   0.100000E-03
  | Found data for basic radial integration grid :    34 points, outermost radius =    5.000 A
  | Found multiplier for basic radial grid :   1
  | Found angular grid specification: user-specified.
  | Specified grid contains     5 separate shells.
  | Check grid settings after all constraints further below.
  | Found free-atom valence shell :  2 s   2.000
  | Found free-atom valence shell :  2 p   2.000
  | No ionic wave fns used. Skipping ion_occ.
  | No ionic wave fns used. Skipping ion_occ.
  | Found hydrogenic basis function :  2 p   1.700
  | Found hydrogenic basis function :  3 d   6.000
  | Found hydrogenic basis function :  2 s   4.900
  Species C                   : Missing cutoff potential type.
  Defaulting to exp(1/x)/(1-x)^2 type cutoff potential.
  Species C : No 'logarithmic' tag. Using default grid for free atom:
  | Default logarithmic grid data [bohr] : 0.1000E-03 0.1000E+03 0.1012E+01
  Species C : On-site basis accuracy parameter (for Gram-Schmidt orthonormalisation) not specified.
  Using default value basis_acc =  0.1000000E-03.
  Species C                   : Using default innermost maximum threshold i_radial=  2 for radial functions.
  Species C                   : Default cutoff onset for free atom density etc. : 0.35000000E+01 AA.
  Species C                   : Basic radial grid will be enhanced according to radial_multiplier =   1, to contain    34 grid points.

  Finished reading input file 'control.in'.

------------------------------------------------------------


------------------------------------------------------------
          Reading geometry description geometry.in.
------------------------------------------------------------
  | The smallest distance between any two atoms is         1.41999299 AA.
  | The first atom of this pair is atom number                      1 .
  | The second atom of this pair is atom number                     2 .
  | Wigner-Seitz cell of the first atom image           0     0     0 .
  | (The Wigner-Seitz cell of the second atom is 0 0 0  by definition.)

  Symmetry information by spglib:
  | Precision set to  0.1E-04
  | Number of Operations  : 12
  | Space group           : 164
  | International         : P-3m1
  | Schoenflies           : D3d^3
  Input structure read successfully.
  The structure contains        4 atoms,  and a total of         24.000 electrons.

  Input geometry:
  | Unit cell:
  |        2.45950000        0.00000000        0.00000000
  |        1.22975000        2.12999000        0.00000000
  |        0.00000000        0.00000000      100.00000000
  | Atomic structure:
  |       Atom                x [A]            y [A]            z [A]
  |    1: Species C             0.00000000        0.00000000       48.32499995
  |    2: Species C             1.22975000        0.70999650       48.32499995
  |    3: Species C             3.68925000        2.12999000       51.67500005
  |    4: Species C             2.45950000        1.41999350       51.67500005

  Lattice parameters for 3D lattice (in Angstroms) :     2.459500    2.459500  100.000000
  Angle(s) between unit vectors (in degrees)       :    90.000000   90.000000   60.000006


  Quantities derived from the lattice vectors (in Angstrom^-1):
  | Reciprocal lattice vector 1:  2.554660 -1.474933  0.000000
  | Reciprocal lattice vector 2: -0.000000  2.949866  0.000000
  | Reciprocal lattice vector 3:  0.000000  0.000000  0.062832
  | Unit cell volume                               :   0.523871E+03  Angstrom^3

  Fractional coordinates:
                         L1                L2                L3
       atom_frac         0.00000000        0.00000000        0.48325000  C
       atom_frac         0.33333337        0.33333326        0.48325000  C
       atom_frac         1.00000000        1.00000000        0.51675000  C
       atom_frac         0.66666663        0.66666674        0.51675000  C

  Slab Identifier: This is Z-oriented slab and maximum thickness of the vacuum is: 96.650 Angstrom.

  Finished reading input file 'geometry.in'.



  Consistency checks for stacksize environment parameter are next.

  | Maximum stacksize for task 0: unlimited
  | Maximum stacksize for task 1: unlimited
  | Maximum stacksize for task 2: unlimited
  | Maximum stacksize for task 3: unlimited
  | Maximum stacksize for task 4: unlimited
  | Maximum stacksize for task 5: unlimited
  | Maximum stacksize for task 6: unlimited
  | Maximum stacksize for task 7: unlimited
  | Maximum stacksize for task 8: unlimited
  | Maximum stacksize for task 9: unlimited
  | Maximum stacksize for task 10: unlimited
  | Maximum stacksize for task 11: unlimited
  | Maximum stacksize for task 12: unlimited
  | Maximum stacksize for task 13: unlimited
  | Maximum stacksize for task 14: unlimited
  | Maximum stacksize for task 15: unlimited
  | Maximum stacksize for task 16: unlimited
  | Maximum stacksize for task 17: unlimited
  | Maximum stacksize for task 18: unlimited
  | Maximum stacksize for task 19: unlimited
  | Maximum stacksize for task 20: unlimited
  | Maximum stacksize for task 21: unlimited
  | Maximum stacksize for task 22: unlimited
  | Maximum stacksize for task 23: unlimited
  | Maximum stacksize for task 24: unlimited
  | Maximum stacksize for task 25: unlimited
  | Maximum stacksize for task 26: unlimited
  | Maximum stacksize for task 27: unlimited
  | Maximum stacksize for task 28: unlimited
  | Maximum stacksize for task 29: unlimited
  | Maximum stacksize for task 30: unlimited
  | Maximum stacksize for task 31: unlimited
  | Maximum stacksize for task 32: unlimited
  | Maximum stacksize for task 33: unlimited
  | Maximum stacksize for task 34: unlimited
  | Maximum stacksize for task 35: unlimited
  | Maximum stacksize for task 36: unlimited
  | Maximum stacksize for task 37: unlimited
  | Maximum stacksize for task 38: unlimited
  | Maximum stacksize for task 39: unlimited
  | Maximum stacksize for task 40: unlimited
  | Maximum stacksize for task 41: unlimited
  | Maximum stacksize for task 42: unlimited
  | Maximum stacksize for task 43: unlimited
  | Maximum stacksize for task 44: unlimited
  | Maximum stacksize for task 45: unlimited
  | Maximum stacksize for task 46: unlimited
  | Maximum stacksize for task 47: unlimited
  | Maximum stacksize for task 48: unlimited
  | Maximum stacksize for task 49: unlimited
  | Maximum stacksize for task 50: unlimited
  | Maximum stacksize for task 51: unlimited
  | Maximum stacksize for task 52: unlimited
  | Maximum stacksize for task 53: unlimited
  | Maximum stacksize for task 54: unlimited
  | Maximum stacksize for task 55: unlimited
  | Maximum stacksize for task 56: unlimited
  | Maximum stacksize for task 57: unlimited
  | Maximum stacksize for task 58: unlimited
  | Maximum stacksize for task 59: unlimited
  | Maximum stacksize for task 60: unlimited
  | Maximum stacksize for task 61: unlimited
  | Maximum stacksize for task 62: unlimited
  | Maximum stacksize for task 63: unlimited
  | Current stacksize for task 0: unlimited
  | Current stacksize for task 1: unlimited
  | Current stacksize for task 2: unlimited
  | Current stacksize for task 3: unlimited
  | Current stacksize for task 4: unlimited
  | Current stacksize for task 5: unlimited
  | Current stacksize for task 6: unlimited
  | Current stacksize for task 7: unlimited
  | Current stacksize for task 8: unlimited
  | Current stacksize for task 9: unlimited
  | Current stacksize for task 10: unlimited
  | Current stacksize for task 11: unlimited
  | Current stacksize for task 12: unlimited
  | Current stacksize for task 13: unlimited
  | Current stacksize for task 14: unlimited
  | Current stacksize for task 15: unlimited
  | Current stacksize for task 16: unlimited
  | Current stacksize for task 17: unlimited
  | Current stacksize for task 18: unlimited
  | Current stacksize for task 19: unlimited
  | Current stacksize for task 20: unlimited
  | Current stacksize for task 21: unlimited
  | Current stacksize for task 22: unlimited
  | Current stacksize for task 23: unlimited
  | Current stacksize for task 24: unlimited
  | Current stacksize for task 25: unlimited
  | Current stacksize for task 26: unlimited
  | Current stacksize for task 27: unlimited
  | Current stacksize for task 28: unlimited
  | Current stacksize for task 29: unlimited
  | Current stacksize for task 30: unlimited
  | Current stacksize for task 31: unlimited
  | Current stacksize for task 32: unlimited
  | Current stacksize for task 33: unlimited
  | Current stacksize for task 34: unlimited
  | Current stacksize for task 35: unlimited
  | Current stacksize for task 36: unlimited
  | Current stacksize for task 37: unlimited
  | Current stacksize for task 38: unlimited
  | Current stacksize for task 39: unlimited
  | Current stacksize for task 40: unlimited
  | Current stacksize for task 41: unlimited
  | Current stacksize for task 42: unlimited
  | Current stacksize for task 43: unlimited
  | Current stacksize for task 44: unlimited
  | Current stacksize for task 45: unlimited
  | Current stacksize for task 46: unlimited
  | Current stacksize for task 47: unlimited
  | Current stacksize for task 48: unlimited
  | Current stacksize for task 49: unlimited
  | Current stacksize for task 50: unlimited
  | Current stacksize for task 51: unlimited
  | Current stacksize for task 52: unlimited
  | Current stacksize for task 53: unlimited
  | Current stacksize for task 54: unlimited
  | Current stacksize for task 55: unlimited
  | Current stacksize for task 56: unlimited
  | Current stacksize for task 57: unlimited
  | Current stacksize for task 58: unlimited
  | Current stacksize for task 59: unlimited
  | Current stacksize for task 60: unlimited
  | Current stacksize for task 61: unlimited
  | Current stacksize for task 62: unlimited
  | Current stacksize for task 63: unlimited

  Consistency checks for the contents of control.in are next.

  MPI_IN_PLACE appears to work with this MPI implementation.
  | Keeping use_mpi_in_place .true. (see manual).
  Target number of points in a grid batch is not set. Defaulting to  100
  Method for grid partitioning is not set. Defaulting to parallel hash+maxmin partitioning.
  Batch size limit is not set. Defaulting to    200
  By default, will store active basis functions for each batch.
  If in need of memory, prune_basis_once .false. can be used to disable this option.
  communication_type for Hartree potential was not specified.
  Defaulting to calc_hartree .
  Defaulting to Pulay charge density mixer.
  Pulay mixer: Number of relevant iterations not set.
  Defaulting to    8 iterations.
  Pulay mixer: Number of initial linear mixing iterations not set.
  Defaulting to    0 iterations.
  Work space size for distributed Hartree potential not set.
  Defaulting to   0.200000E+03 MB.
  Mixing parameter for charge density mixing has not been set.
  Using default: charge_mix_param =     0.0500.
  The mixing parameter will be adjusted in iteration number     2 of each s.c.f. cycle (i.e., each geometry step).
  Algorithm-dependent basis array size parameters:
  | n_max_pulay                         :        8
  Maximum number of self-consistency iterations not provided.
  Presetting  1000 iterations.
  Presetting      1001 iterations before the initial mixing cycle
  is restarted anyway using the sc_init_iter criterion / keyword.
  Presetting a factor      1.000 between actual scf density residual
  and density convergence criterion sc_accuracy_rho below which sc_init_iter
  takes no effect.
 * No s.c.f. convergence criteria (sc_accuracy_*) were provided in control.in.
 * The run will proceed with a reasonable default guess, but please check whether.
 * the s.c.f. cycles seem to take too much or too little time.
  Calculation of forces was not defined in control.in. No forces will be calculated.
  Geometry relaxation not requested: no relaxation will be performed.
 * Notice: The s.c.f. convergence criterion sc_accuracy_rho was not provided.
 * We used to stop in this case, and ask the user to provide reasonable
 * scf convergence criteria. However, this led some users to employ criteria
 * that led to extremely long run times, e.g., for simple relaxation.
 * We now preset a default value for sc_accuracy_rho if it is not set.
 * You may still wish to check if this setting is too tight or too loose for your needs.
 * Based on n_atoms and forces and force-correction status, FHI-aims chose sc_accuracy_rho =  0.100000E-05 .
  No accuracy limit for integral partition fn. given. Defaulting to  0.1000E-14.
  No occupation type (smearing scheme) given. Defaulting to Gaussian broadening, width =  0.1000E-01 eV.
  The width will be adjusted in iteration number     2 of each s.c.f. cycle (i.e., each geometry step).
  No accuracy for occupation numbers given. Defaulting to  0.1000E-12.
  No threshold value for occupation numbers given. Defaulting to  0.0000E+00.
  No accuracy for fermi level given. Defaulting to  0.1000E-19.
  Maximum # of iterations to find E_F not set. Defaulting to  200.
  Preferred method for the eigenvalue solver ('KS_method') not specified in 'control.in'.
  Defaulting to serial version, LAPACK (via ELSI), since more k-points than CPUs available.
  Will not use alltoall communication since running on < 1024 CPUs.
  Threshold for basis singularities not set.
  Default threshold for basis singularities:  0.1000E-04
  partition_type (choice of integration weights) for integrals was not specified.
  | Using a version of the partition function of Stratmann and coworkers ('stratmann_sparse').
  | At each grid point, the set of atoms used to build the partition table is smoothly restricted to
  | only those atoms whose free-atom density would be non-zero at that grid point.
  Partitioning for Hartree potential was not defined. Using partition_type for integrals.
  | Adjusted default value of keyword multip_moments_threshold to:       0.10000000E-11
  | This value may affect high angular momentum components of the Hartree potential in periodic systems.
  Using 2025 definition of centers list for evaluation of the Stratmann partition function.
  Angular momentum expansion for Kerker preconditioner not set explicitly.
  | Using default value of   0
  No explicit requirement for turning off preconditioner.
  | By default, it will be turned off when the charge convergence reaches
  | sc_accuracy_rho  =   0.100000E-05
  No special mixing parameter while Kerker preconditioner is on.
  Using default: charge_mix_param =     0.0500.
  No q(lm)/r^(l+1) cutoff set for long-range Hartree potential.
  | Using default value of  0.100000E-09 .
  | Verify using the multipole_threshold keyword.
  Defaulting to new monopole extrapolation.
  Density update method: automatic selection selected.
  Using density matrix based charge density update.
  Using density matrix based charge density update.
  Using packed matrix style: index .
  Threshold of packed matrixes:  0.000000E+00
  Defaulting to use time-reversal symmetry for k-point grid.
  Charge integration errors on the 3D integration grid will be compensated
  by explicit normalization and distribution of residual charges.
  Use the "compensate_multipole_errors" flag to change this behaviour.
  Set 'collect_eigenvectors' to be '.true.' for all serial calculations. This is mandatory.
  Set 'collect_eigenvectors' to be '.true.' for KS_method lapack_fast and serial.
  Found potential conflicts with setting 'use_local_index' for this calculation. Will not set it.

  Consistency checks for the contents of geometry.in are next.


  Range separation radius for Ewald summation (hartree_convergence_parameter):      5.00000000 bohr.
  Number of empty states per atom not set in control.in - providing a guess from actual geometry.
  | Total number of empty states used during s.c.f. cycle:       12
  If you use a very high smearing, use empty_states (per atom!) in control.in to increase this value.
  * Since a DOS, bandstructure or SOC calculation was requested, the number of empty states requested was INCREASED.
  | Number of empty states (old):      24.0000000
  | Number of empty states (new):      34.0000000

  Structure-dependent array size parameters: 
  | Maximum number of distinct radial functions  :        6
  | Maximum number of basis functions            :       56
  | Number of Kohn-Sham states (occupied + empty):       29
------------------------------------------------------------
 Error: The dipole correction needs vacuum z-level to be defined
 Vacuum level will be determined automatically.
 Determine position of vacuum level automatically
** WARNING:
 ** This feature is experimental and still requires some testing
 **PLEASE ** : If you see it fail, please report.
** END OF WARNING
 Vacuum level determined:
 set_vacuum_level  100.00000 Angstrom

  Checking k-grid inconsistencies now:
  | k-point density for reciprocal lattice vector 1 is    2.71 nkpts / Angstrom^-1
  | k-point density for reciprocal lattice vector 2 is    2.71 nkpts / Angstrom^-1
  | k-point density for reciprocal vacuum lattice vector 3 is   15.92 nkpts / Angstrom^-1

  | Ratio of k-point densities for reciprocal lattice vectors 1 vs 2 is    1.00

  * The specified k_grid leads to a nearly homogenous k-grid density in non-vacuum directions,
  * and seems sensible.

  | Checks passed.
  After read_input_data [GB]:   1024.59

  Performing system and environment tests:
  | Environment variable OMP_NUM_THREADS correctly set to 1.
  | Checking for ScaLAPACK...
  | Testing pdtran()...
  | All pdtran() tests passed.
  | Testing CPU compatibility for run-time vs. build-time.
  | Reading /proc/cpuinfo for CPU information ...
  | Built for  : Intel(R) Xeon(R) Platinum 8360Y CPU @ 2.40GHz
  | Running on : Intel(R) Xeon(R) Platinum 8360Y CPU @ 2.40GHz
  | Runtime CPU compatibility verified.
  
  After prepare_system [GB]:   1024.55

------------------------------------------------------------
          Preparing all fixed parts of the calculation.
------------------------------------------------------------
  Determining machine precision:
     2.2250738585072014E-308
  Setting up grids for atomic and cluster calculations.

  Creating wave function, potential, and density for free atoms.
  Runtime choices for atomic solver:
  | atomic solver xc        : PBE
  | compute density gradient: 1
  | compute kinetic density : F

  Species: C

  List of occupied orbitals and eigenvalues:
    n    l              occ      energy [Ha]    energy [eV]
    1    0           2.0000       -10.046810      -273.3876
    2    0           2.0000        -0.503128       -13.6908
    2    1           2.0000        -0.191849        -5.2205


  Adding cutoff potential to free-atom effective potential.
  Creating fixed part of basis set: Ionic, confined, hydrogenic.

  C                    hydrogenic:

  List of hydrogenic basis orbitals: 
    n    l      effective z      eigenvalue [eV]  inner max. [A]     outer max. [A]     outer radius [A]   
    2    1         1.700000        -9.7616           1.230570           1.230570           4.607917
    3    2         6.000000       -54.4224           0.792453           0.792453           3.883070
    2    0         4.900000       -81.6679           0.082559           0.562749           3.078220

  Creating atomic-like basis functions for current effective potential.

  Species C                   :

  List of atomic basis orbitals and eigenvalues:
    n    l      energy [Ha]    energy [eV]    outer radius [A]
    1    0       -10.046810      -273.3876       1.934409
    2    0        -0.503128       -13.6908       4.496620
    2    1        -0.191849        -5.2205       4.551928

  Assembling full basis from fixed parts.
  | Species C :   atomic orbital   1 s accepted.
  | Species C :    hydro orbital   2 s accepted.
  | Species C :   atomic orbital   2 s accepted.
  | Species C :   atomic orbital   2 p accepted.
  | Species C :    hydro orbital   2 p accepted.
  | Species C :    hydro orbital   3 d accepted.

  Basis size parameters after reduction:
  | Total number of radial functions:        6
  | Total number of basis functions :       56

  Per-task memory consumption for arrays in subroutine allocate_ext:
  |           1.963076MB.
  Testing on-site integration grid accuracy.
  |  Species  Function  <phi|h_atom|phi> (log., in eV)  <phi|h_atom|phi> (rad., in eV)
           1        1               -273.3876219248               -273.3875919908
           1        2                -10.7204647119                -10.7200987605
           1        3                 17.5782951162                 17.5752355731
           1        4                 -5.2222267983                 -5.2237454471
           1        5                  8.6866956284                  8.6634852736
           1        6                 27.4984676161                 27.4985577266

  Preparing densities etc. for the partition functions (integrals / Hartree potential).

  Preparations completed.
  max(cpu_time)          :      0.088 s.
  Wall clock time (cpu1) :      0.091 s.
------------------------------------------------------------
  After prepare_scf [GB]:   1024.13

  Initializing index lists of integration centers etc. from given atomic structure:
  Mapping all atomic coordinates to central unit cell.

  Initializing the k-points
  Using symmetry for reducing the k-points
  | k-points reduced from:       64 to       34
  | Number of k-points                             :        34
  The eigenvectors in the calculations are COMPLEX.
  | K-points in task   0:         0
  | K-points in task   1:         1
  | K-points in task   2:         1
  | K-points in task   3:         1
  | K-points in task   4:         1
  | K-points in task   5:         1
  | K-points in task   6:         1
  | K-points in task   7:         1
  | K-points in task   8:         1
  | K-points in task   9:         1
  | K-points in task  10:         1
  | K-points in task  11:         1
  | K-points in task  12:         1
  | K-points in task  13:         1
  | K-points in task  14:         1
  | K-points in task  15:         1
  | K-points in task  16:         1
  | K-points in task  17:         1
  | K-points in task  18:         1
  | K-points in task  19:         1
  | K-points in task  20:         1
  | K-points in task  21:         1
  | K-points in task  22:         1
  | K-points in task  23:         1
  | K-points in task  24:         1
  | K-points in task  25:         1
  | K-points in task  26:         1
  | K-points in task  27:         1
  | K-points in task  28:         1
  | K-points in task  29:         1
  | K-points in task  30:         1
  | K-points in task  31:         1
  | K-points in task  32:         1
  | K-points in task  33:         1
  | K-points in task  34:         1
  | K-points in task  35:         0
  | K-points in task  36:         0
  | K-points in task  37:         0
  | K-points in task  38:         0
  | K-points in task  39:         0
  | K-points in task  40:         0
  | K-points in task  41:         0
  | K-points in task  42:         0
  | K-points in task  43:         0
  | K-points in task  44:         0
  | K-points in task  45:         0
  | K-points in task  46:         0
  | K-points in task  47:         0
  | K-points in task  48:         0
  | K-points in task  49:         0
  | K-points in task  50:         0
  | K-points in task  51:         0
  | K-points in task  52:         0
  | K-points in task  53:         0
  | K-points in task  54:         0
  | K-points in task  55:         0
  | K-points in task  56:         0
  | K-points in task  57:         0
  | K-points in task  58:         0
  | K-points in task  59:         0
  | K-points in task  60:         0
  | K-points in task  61:         0
  | K-points in task  62:         0
  | K-points in task  63:         0
  | Number of basis functions in the Hamiltonian integrals       :      2180
  | Number of basis functions in a single unit cell              :        56
  | Number of centers in hartree potential                       :      1428
  | Number of centers in hartree multipole                       :       598
  | Number of centers in electron density summation              :       454
  | Number of centers in basis integrals                         :       454
  | Number of centers in integrals                               :       198
  | Number of centers in hamiltonian                             :       454
  | Number of centers in partition table from touching 0-cell    :       198
  | Number of centers in partition table total                   :       454
  | Consuming         98 KiB for k_phase.
  | Number of super-cells (origin) [n_cells]                     :        1083
  | Number of super-cells (after PM_index) [n_cells]             :         186
  | Number of super-cells in hamiltonian [n_cells_in_hamiltonian]:         186
  | Size of matrix packed + index [n_hamiltonian_matrix_size]    :       63605
  After initialize_bc_dependent_lists [GB]:   1024.04

------------------------------------------------------------
          Begin self-consistency loop: Initialization.

          Date     :  20250806, Time     :  170807.302
------------------------------------------------------------
  Available memory per node after initialize_hartree_non_periodic_ewald [GB]:   1024.04
  | Estimated reciprocal-space cutoff momentum G_max:         1.84432723 bohr^-1 .
  | Reciprocal lattice points for long-range Hartree potential:     464
  Available memory per node after initialize_recip_hartree_potential [GB]:   1024.04
  Available memory per node after initialize_scalapack [GB]:   1024.04
  Available memory per node after aims_elsi_init_scf [GB]:   1024.04
  Available memory per node after initialize_fixed_grids [GB]:   1024.04
  Partitioning the integration grid into batches with parallel hashing+maxmin method.
  | Number of batches:      272
  | Maximal batch size:     147
  | Minimal batch size:      12
  | Average batch size:      84.647
  | Standard deviation of batch sizes:      17.093

  Integration load balanced across    64 MPI tasks.
  Work distribution over tasks is as follows:
  Task     0 has        377 integration points.
  Task     1 has        329 integration points.
  Task     2 has        382 integration points.
  Task     3 has        336 integration points.
  Task     4 has        341 integration points.
  Task     5 has        384 integration points.
  Task     6 has        398 integration points.
  Task     7 has        402 integration points.
  Task     8 has        379 integration points.
  Task     9 has        403 integration points.
  Task    10 has        364 integration points.
  Task    11 has        333 integration points.
  Task    12 has        402 integration points.
  Task    13 has        401 integration points.
  Task    14 has        332 integration points.
  Task    15 has        332 integration points.
  Task    16 has        330 integration points.
  Task    17 has        397 integration points.
  Task    18 has        364 integration points.
  Task    19 has        330 integration points.
  Task    20 has        400 integration points.
  Task    21 has        333 integration points.
  Task    22 has        368 integration points.
  Task    23 has        329 integration points.
  Task    24 has        360 integration points.
  Task    25 has        335 integration points.
  Task    26 has        404 integration points.
  Task    27 has        332 integration points.
  Task    28 has        364 integration points.
  Task    29 has        371 integration points.
  Task    30 has        401 integration points.
  Task    31 has        334 integration points.
  Task    32 has        378 integration points.
  Task    33 has        329 integration points.
  Task    34 has        331 integration points.
  Task    35 has        334 integration points.
  Task    36 has        366 integration points.
  Task    37 has        400 integration points.
  Task    38 has        381 integration points.
  Task    39 has        330 integration points.
  Task    40 has        367 integration points.
  Task    41 has        399 integration points.
  Task    42 has        331 integration points.
  Task    43 has        334 integration points.
  Task    44 has        330 integration points.
  Task    45 has        331 integration points.
  Task    46 has        395 integration points.
  Task    47 has        337 integration points.
  Task    48 has        406 integration points.
  Task    49 has        398 integration points.
  Task    50 has        344 integration points.
  Task    51 has        403 integration points.
  Task    52 has        398 integration points.
  Task    53 has        333 integration points.
  Task    54 has        333 integration points.
  Task    55 has        332 integration points.
  Task    56 has        374 integration points.
  Task    57 has        330 integration points.
  Task    58 has        337 integration points.
  Task    59 has        335 integration points.
  Task    60 has        341 integration points.
  Task    61 has        332 integration points.
  Task    62 has        327 integration points.
  Task    63 has        381 integration points.
  Available memory per node after partition_grid [GB]:   1024.04
  Initializing partition tables, free-atom densities, potentials, etc. across the integration grid (initialize_grid_storage).
  | initialize_grid_storage: Actual outermost partition radius vs. multipole_radius_free
  | (-- VB: in principle, multipole_radius_free should be larger, hence this output)
  | Species        1: Confinement radius =              4.999999999999999 AA, multipole_radius_free =              5.019602836301480 AA.
  | Species        1: outer_partition_radius set to              5.019602836301480 AA .
  | The sparse table of interatomic distances needs        732.72 kbyte instead of      1648.93 kbyte of memory.
  | Net number of integration points:    23024
  | of which are non-zero points    :    18664
  | Numerical average free-atom electrostatic potential    :     -0.93194996 eV
  Available memory per node after initialize_grid_storage_p1 [GB]:   1024.03
  Renormalizing the initial density to the exact electron count on the 3D integration grid.
  | Initial density: Formal number of electrons (from input files) :      24.0000000000
  | Integrated number of electrons on 3D grid     :      24.0015978765
  | Charge integration error                      :       0.0015978765
  | Normalization factor for density and gradient :       0.9999334262
  Renormalizing the free-atom superposition density to the exact electron count on the 3D integration grid.
  | Formal number of electrons (from input files) :      24.0000000000
  | Integrated number of electrons on 3D grid     :      24.0015978765
  | Charge integration error                      :       0.0015978765
  | Normalization factor for density and gradient :       0.9999334262
  Obtaining max. number of non-zero basis functions in each batch (get_n_compute_maxes).
  | Maximal number of non-zero basis functions:      658 in task     0
  | Maximal number of non-zero basis functions:      614 in task     1
  | Maximal number of non-zero basis functions:      639 in task     2
  | Maximal number of non-zero basis functions:      631 in task     3
  | Maximal number of non-zero basis functions:      635 in task     4
  | Maximal number of non-zero basis functions:      642 in task     5
  | Maximal number of non-zero basis functions:      610 in task     6
  | Maximal number of non-zero basis functions:      651 in task     7
  | Maximal number of non-zero basis functions:      613 in task     8
  | Maximal number of non-zero basis functions:      610 in task     9
  | Maximal number of non-zero basis functions:      539 in task    10
  | Maximal number of non-zero basis functions:      529 in task    11
  | Maximal number of non-zero basis functions:      619 in task    12
  | Maximal number of non-zero basis functions:      627 in task    13
  | Maximal number of non-zero basis functions:      612 in task    14
  | Maximal number of non-zero basis functions:      580 in task    15
  | Maximal number of non-zero basis functions:      637 in task    16
  | Maximal number of non-zero basis functions:      646 in task    17
  | Maximal number of non-zero basis functions:      570 in task    18
  | Maximal number of non-zero basis functions:      586 in task    19
  | Maximal number of non-zero basis functions:      647 in task    20
  | Maximal number of non-zero basis functions:      512 in task    21
  | Maximal number of non-zero basis functions:      542 in task    22
  | Maximal number of non-zero basis functions:      585 in task    23
  | Maximal number of non-zero basis functions:      629 in task    24
  | Maximal number of non-zero basis functions:      610 in task    25
  | Maximal number of non-zero basis functions:      639 in task    26
  | Maximal number of non-zero basis functions:      489 in task    27
  | Maximal number of non-zero basis functions:      520 in task    28
  | Maximal number of non-zero basis functions:      545 in task    29
  | Maximal number of non-zero basis functions:      548 in task    30
  | Maximal number of non-zero basis functions:      610 in task    31
  | Maximal number of non-zero basis functions:      606 in task    32
  | Maximal number of non-zero basis functions:      542 in task    33
  | Maximal number of non-zero basis functions:      520 in task    34
  | Maximal number of non-zero basis functions:      525 in task    35
  | Maximal number of non-zero basis functions:      614 in task    36
  | Maximal number of non-zero basis functions:      600 in task    37
  | Maximal number of non-zero basis functions:      592 in task    38
  | Maximal number of non-zero basis functions:      472 in task    39
  | Maximal number of non-zero basis functions:      610 in task    40
  | Maximal number of non-zero basis functions:      614 in task    41
  | Maximal number of non-zero basis functions:      543 in task    42
  | Maximal number of non-zero basis functions:      634 in task    43
  | Maximal number of non-zero basis functions:      572 in task    44
  | Maximal number of non-zero basis functions:      530 in task    45
  | Maximal number of non-zero basis functions:      557 in task    46
  | Maximal number of non-zero basis functions:      417 in task    47
  | Maximal number of non-zero basis functions:      626 in task    48
  | Maximal number of non-zero basis functions:      614 in task    49
  | Maximal number of non-zero basis functions:      600 in task    50
  | Maximal number of non-zero basis functions:      531 in task    51
  | Maximal number of non-zero basis functions:      589 in task    52
  | Maximal number of non-zero basis functions:      520 in task    53
  | Maximal number of non-zero basis functions:      532 in task    54
  | Maximal number of non-zero basis functions:      539 in task    55
  | Maximal number of non-zero basis functions:      546 in task    56
  | Maximal number of non-zero basis functions:      492 in task    57
  | Maximal number of non-zero basis functions:      529 in task    58
  | Maximal number of non-zero basis functions:      515 in task    59
  | Maximal number of non-zero basis functions:      611 in task    60
  | Maximal number of non-zero basis functions:      603 in task    61
  | Maximal number of non-zero basis functions:      488 in task    62
  | Maximal number of non-zero basis functions:      629 in task    63
  Available memory per node after get_n_compute_maxes_p1 [GB]:   1024.01
  Allocating        0.000 MB for KS_eigenvector_complex
  Available memory per node after allocate_matrices [GB]:   1024.01
  Available memory per node after init_comm_sparse_local_matrix_scalapack [GB]:   1024.01
  Integrating Hamiltonian matrix: batch-based integration.
  Time summed over all CPUs for integration: real work        2.656 s, elapsed        4.230 s => Consider using load balancing!
  Available memory per node after integrate hamiltonian matrix [GB]:   1023.34
  Integrating overlap matrix.
  Time summed over all CPUs for integration: real work        1.066 s, elapsed        1.791 s
  Available memory per node after integrate ovlp matrix [GB]:   1023.30
  Available memory per node after ASI_callbacks invoke [GB]:   1023.30
  Available memory per node after save_overlap_scalapack [GB]:   1023.30

  Updating Kohn-Sham eigenvalues and eigenvectors using ELSI and the (modified) LAPACK eigensolver.

  Obtaining occupation numbers and electronic chemical potential using ELSI.
  | Note that, for insulating systems, the printed 'chemical potential' value is not uniquely defined.
  | It can be anywhere in the energy gap, as long as it correctly separates occupied and unoccupied states.
  | In systems with a gap, the physically relevant chemical potential is the VBM or HOMO.

  | Chemical potential (Fermi level):    -8.03038916 eV
  Available memory per node after advance_KS_solution [GB]:   1023.28
  Writing Kohn-Sham eigenvalues.
  K-point:       1 at    0.000000    0.000000    0.000000 (in units of recip. lattice)

  State    Occupation    Eigenvalue [Ha]    Eigenvalue [eV]
      1       2.00000         -10.159530         -276.45487
      2       2.00000         -10.159529         -276.45485
      3       2.00000         -10.158570         -276.42875
      4       2.00000         -10.158570         -276.42875
      5       2.00000          -1.041959          -28.35314
      6       2.00000          -1.038313          -28.25394
      7       2.00000          -0.579474          -15.76828
      8       2.00000          -0.550439          -14.97820
      9       2.00000          -0.461237          -12.55089
     10       2.00000          -0.461237          -12.55089
     11       2.00000          -0.460992          -12.54424
     12       2.00000          -0.460992          -12.54423
     13       0.00000          -0.022807           -0.62061
     14       0.00000          -0.022792           -0.62021
     15       0.00000          -0.022117           -0.60184
     16       0.00000          -0.022100           -0.60137
     17       0.00000           0.101582            2.76419
     18       0.00000           0.104640            2.84741
     19       0.00000           0.114777            3.12324
     20       0.00000           0.130267            3.54474
     21       0.00000           0.142018            3.86451
     22       0.00000           0.144526            3.93274
     23       0.00000           0.244359            6.64934
     24       0.00000           0.653040           17.77011
     25       0.00000           0.947290           25.77706
     26       0.00000           0.947298           25.77730
     27       0.00000           0.955315           25.99545
     28       0.00000           0.955336           25.99601
     29       0.00000           1.037968           28.24456

  What follows are estimated values for band gap, HOMO, LUMO, etc.
  | They are estimated on a discrete k-point grid and not necessarily exact.
  | For converged numbers, create a DOS and/or band structure plot on a denser k-grid.

  Highest occupied state (VBM) at     -8.93547003 eV (relative to internal zero)
  | Occupation number:      2.00000000
  | K-point:      22 at    0.375000    0.625000    0.000000 (in units of recip. lattice)

  Lowest unoccupied state (CBM) at    -7.12530828 eV (relative to internal zero)
  | Occupation number:      0.00000000
  | K-point:      23 at    0.375000    0.750000    0.000000 (in units of recip. lattice)

  The gap value is above 0.2 eV. Unless you are using a very sparse k-point grid,
  this system is most likely an insulator or a semiconductor.
  ESTIMATED overall HOMO-LUMO gap:      1.81016176 eV between HOMO at k-point 22 and LUMO at k-point 23
  | This appears to be an indirect band gap.
  | Smallest direct gap :      1.81016176 eV for k_point 23 at    0.375000    0.750000    0.000000 (in units of recip. lattice)
  Calculating total energy contributions from superposition of free atom densities.

  Total energy components:
  | Sum of eigenvalues            :         -91.82543487 Ha       -2498.69721501 eV
  | XC energy correction          :         -21.40968402 Ha        -582.58714377 eV
  | XC potential correction       :          27.50582335 Ha         748.47153520 eV
  | Free-atom electrostatic energy:         -66.78690817 Ha       -1817.36423790 eV
  | Hartree energy correction     :          -0.00000000 Ha          -0.00000000 eV
  | Entropy correction            :          -0.00000000 Ha          -0.00000000 eV
  | ---------------------------
  | Total energy                  :        -152.51620370 Ha       -4150.17706149 eV
  | Total energy, T -> 0          :        -152.51620370 Ha       -4150.17706149 eV  <-- do not rely on this value for anything but (periodic) metals
  | Electronic free energy        :        -152.51620370 Ha       -4150.17706149 eV

  Derived energy quantities:
  | Kinetic energy                :         151.92608456 Ha        4134.11910253 eV
  | Electrostatic energy          :        -283.03260425 Ha       -7701.70902024 eV
  | Energy correction for multipole
  | error in Hartree potential    :           0.00000000 Ha           0.00000000 eV
  | Sum of eigenvalues per atom                           :        -624.67430375 eV
  | Total energy (T->0) per atom                          :       -1037.54426537 eV  <-- do not rely on this value for anything but (periodic) metals
  | Electronic free energy per atom                       :       -1037.54426537 eV
  Initialize hartree_potential_storage
  Max. number of atoms included in rho_multipole:            4

  End scf initialization - timings             :  max(cpu_time)    wall_clock(cpu1)
  | Time for scf. initialization                :        0.335 s           0.415 s
  | Boundary condition initialization           :        0.328 s           0.720 s
  | Integration                                 :        0.094 s           0.115 s
  | Solution of K.-S. eqns.                     :        0.047 s           0.053 s
  | Grid partitioning                           :        0.091 s           0.089 s
  | Preloading free-atom quantities on grid     :        0.087 s           0.114 s
  | Free-atom superposition energy              :        0.014 s           0.014 s
  | Total energy evaluation                     :        0.001 s           0.000 s

  Partial memory accounting:
  | Current value for overall tracked memory usage:
  |   Minimum:        1.246 MB (on task  0)
  |   Maximum:        1.271 MB (on task  1)
  |   Average:        1.260 MB
  | Peak value for overall tracked memory usage:
  |   Minimum:        3.986 MB (on task 47 after allocating wave)
  |   Maximum:        6.779 MB (on task  0 after allocating wave)
  |   Average:        5.796 MB
  | Largest tracked array allocation so far:
  |   Minimum:        1.327 MB (hamiltonian_shell on task 47)
  |   Maximum:        3.303 MB (hamiltonian_shell on task  0)
  |   Average:        2.576 MB
  Note:  These values currently only include a subset of arrays which are explicitly tracked.
  The "true" memory usage will be greater.
------------------------------------------------------------
  Available memory after initialize_scf [GB]:   1023.28
  Available memory after allocating mixing [GB]:   1023.28
  Evaluating new KS density using the density matrix
  Evaluating density matrix
  Time summed over all CPUs for getting density from density matrix: real work        2.264 s, elapsed        3.302 s
  Integration grid: deviation in total charge (<rho> - N_e) =   0.000000E+00

  Time for density update prior                :  max(cpu_time)    wall_clock(cpu1)
  | self-consistency iterative process          :        0.082 s           0.087 s
  Available memory before start of SCF loop [GB]:   1022.59

------------------------------------------------------------
          Begin self-consistency iteration #    1

  Date     :  20250806, Time     :  170807.829
------------------------------------------------------------
  Pulay mixing of updated and previous charge densities.
  Available memory per node after mixing [GB]:   1022.59
  Renormalizing the density to the exact electron count on the 3D integration grid.
  | Formal number of electrons (from input files) :      24.0000000000
  | Integrated number of electrons on 3D grid     :      23.9995628559
  | Charge integration error                      :      -0.0004371441
  | Normalization factor for density and gradient :       1.0000182147

  Evaluating partitioned Hartree potential by multipole expansion.
  | Original multipole sum: apparent total charge =  -0.171686E-14
  | Sum of charges compensated after spline to logarithmic grids =   0.747803E-05
  | Analytical far-field extrapolation by fixed multipoles:
  | Hartree multipole sum: apparent total charge =  -0.172203E-14
  Summing up the Hartree potential.
  Calculating dipole correction via potential gradient
  Time summed over all CPUs for potential: real work        0.026 s, elapsed        0.041 s
  | RMS charge density error from multipole expansion :   0.137736E-02
  | Average real-space part of the electrostatic potential :      0.00170781 eV

  Integrating Hamiltonian matrix: batch-based integration.
  Time summed over all CPUs for integration: real work        1.335 s, elapsed        2.184 s => Consider using load balancing!

  Updating Kohn-Sham eigenvalues and eigenvectors using ELSI and the (modified) LAPACK eigensolver.

  Obtaining occupation numbers and electronic chemical potential using ELSI.
  | Note that, for insulating systems, the printed 'chemical potential' value is not uniquely defined.
  | It can be anywhere in the energy gap, as long as it correctly separates occupied and unoccupied states.
  | In systems with a gap, the physically relevant chemical potential is the VBM or HOMO.

  | Chemical potential (Fermi level):    -7.81464539 eV
  Writing Kohn-Sham eigenvalues.
  K-point:       1 at    0.000000    0.000000    0.000000 (in units of recip. lattice)

  State    Occupation    Eigenvalue [Ha]    Eigenvalue [eV]
      1       2.00000         -10.145249         -276.06628
      2       2.00000         -10.145249         -276.06626
      3       2.00000         -10.144286         -276.04006
      4       2.00000         -10.144286         -276.04006
      5       2.00000          -1.032918          -28.10713
      6       2.00000          -1.029199          -28.00594
      7       2.00000          -0.572445          -15.57701
      8       2.00000          -0.543011          -14.77609
      9       2.00000          -0.450517          -12.25919
     10       2.00000          -0.450516          -12.25917
     11       2.00000          -0.450267          -12.25238
     12       2.00000          -0.450266          -12.25236
     13       0.00000          -0.013154           -0.35793
     14       0.00000          -0.013139           -0.35753
     15       0.00000          -0.012452           -0.33885
     16       0.00000          -0.012435           -0.33838
     17       0.00000           0.110900            3.01774
     18       0.00000           0.114014            3.10247
     19       0.00000           0.120299            3.27351
     20       0.00000           0.134606            3.66281
     21       0.00000           0.151569            4.12440
     22       0.00000           0.154113            4.19363
     23       0.00000           0.249392            6.78632
     24       0.00000           0.659489           17.94561
     25       0.00000           0.955061           25.98852
     26       0.00000           0.955069           25.98875
     27       0.00000           0.963109           26.20753
     28       0.00000           0.963129           26.20808
     29       0.00000           1.045566           28.45129

  What follows are estimated values for band gap, HOMO, LUMO, etc.
  | They are estimated on a discrete k-point grid and not necessarily exact.
  | For converged numbers, create a DOS and/or band structure plot on a denser k-grid.

  Highest occupied state (VBM) at     -8.72027515 eV (relative to internal zero)
  | Occupation number:      2.00000000
  | K-point:      22 at    0.375000    0.625000    0.000000 (in units of recip. lattice)

  Lowest unoccupied state (CBM) at    -6.90901563 eV (relative to internal zero)
  | Occupation number:      0.00000000
  | K-point:      22 at    0.375000    0.625000    0.000000 (in units of recip. lattice)

  The gap value is above 0.2 eV. Unless you are using a very sparse k-point grid,
  this system is most likely an insulator or a semiconductor.
  ESTIMATED overall HOMO-LUMO gap:      1.81125952 eV between HOMO at k-point 22 and LUMO at k-point 22
  | This appears to be a direct band gap.

  Writing energy levels:
  | Potential vacuum level, "upper" slab surface    :    -0.00735745 eV
  | Potential vacuum level, "lower" slab surface    :    -0.00735745 eV
  | Work function ("upper" slab surface)            :     7.80728794 eV
  | Work function ("lower" slab surface)            :     7.80728794 eV
  *** Band gap may exist, work functions will also be defined using VBM and CBM.
  | VBM (reference: upper vacuum level)             :     8.71291771 eV
  | Work function ("upper" surface, reference: VBM) :     8.71291771 eV
  | Work function ("lower" surface, reference: VBM) :     8.71291771 eV
  | CBM (reference: upper vacuum level)             :     6.90165818 eV
  | Work function ("upper" surface, reference: CBM) :     6.90165818 eV
  | Work function ("lower" surface, reference: CBM) :     6.90165818 eV

  Total energy components:
  | Sum of eigenvalues            :         -91.56314245 Ha       -2491.55987515 eV
  | XC energy correction          :         -21.42283007 Ha        -582.94486617 eV
  | XC potential correction       :          27.52283398 Ha         748.93441796 eV
  | Free-atom electrostatic energy:         -66.78690817 Ha       -1817.36423790 eV
  | Hartree energy correction     :          -0.25708311 Ha          -6.99558722 eV
  | Entropy correction            :          -0.00000000 Ha          -0.00000000 eV
  | ---------------------------
  | Total energy                  :        -152.50712982 Ha       -4149.93014848 eV
  | Total energy, T -> 0          :        -152.50712982 Ha       -4149.93014848 eV  <-- do not rely on this value for anything but (periodic) metals
  | Electronic free energy        :        -152.50712982 Ha       -4149.93014848 eV

  Derived energy quantities:
  | Kinetic energy                :         151.97790902 Ha        4135.52931794 eV
  | Electrostatic energy          :        -283.06220877 Ha       -7702.51460025 eV
  | Energy correction for multipole
  | error in Hartree potential    :           0.00336956 Ha           0.09169051 eV
  | Sum of eigenvalues per atom                           :        -622.88996879 eV
  | Total energy (T->0) per atom                          :       -1037.48253712 eV  <-- do not rely on this value for anything but (periodic) metals
  | Electronic free energy per atom                       :       -1037.48253712 eV
  Evaluating new KS density using the density matrix
  Evaluating density matrix
  Time summed over all CPUs for getting density from density matrix: real work        1.932 s, elapsed        2.939 s
  Integration grid: deviation in total charge (<rho> - N_e) =   0.000000E+00

  Self-consistency convergence accuracy:
  | Change of charge density      :  0.3088E+00
  | Change of unmixed KS density  :  0.1127E+02
  | Change of sum of eigenvalues  :  0.7137E+01 eV
  | Change of total energy        :  0.2469E+00 eV


------------------------------------------------------------
  End self-consistency iteration #     1       :  max(cpu_time)    wall_clock(cpu1)
  | Time for this iteration                     :        0.200 s           0.223 s
  | Charge density update                       :        0.048 s           0.048 s
  | Density mixing & preconditioning            :        0.066 s           0.062 s
  | Hartree multipole update                    :        0.001 s           0.001 s
  | Hartree multipole summation                 :        0.047 s           0.072 s
  | Integration                                 :        0.037 s           0.037 s
  | Solution of K.-S. eqns.                     :        0.002 s           0.002 s
  | Total energy evaluation                     :        0.000 s           0.000 s

  Partial memory accounting:
  | Current value for overall tracked memory usage:
  |   Minimum:        1.914 MB (on task 62)
  |   Maximum:        1.981 MB (on task 26)
  |   Average:        1.945 MB
  | Peak value for overall tracked memory usage:
  |   Minimum:        6.052 MB (on task 47 after allocating gradient_basis_wave)
  |   Maximum:        9.673 MB (on task  0 after allocating gradient_basis_wave)
  |   Average:        8.415 MB
  | Largest tracked array allocation so far:
  |   Minimum:        1.403 MB (gradient_basis_wave on task 47)
  |   Maximum:        3.303 MB (gradient_basis_wave on task  0)
  |   Average:        2.577 MB
  Note:  These values currently only include a subset of arrays which are explicitly tracked.
  The "true" memory usage will be greater.
------------------------------------------------------------

------------------------------------------------------------
          Begin self-consistency iteration #    2

  Date     :  20250806, Time     :  170808.054
------------------------------------------------------------
  Pulay mixing of updated and previous charge densities.
  Available memory per node after mixing [GB]:   1022.50
  Renormalizing the density to the exact electron count on the 3D integration grid.
  | Formal number of electrons (from input files) :      24.0000000000
  | Integrated number of electrons on 3D grid     :      23.9928464441
  | Charge integration error                      :      -0.0071535559
  | Normalization factor for density and gradient :       1.0002981537

  Evaluating partitioned Hartree potential by multipole expansion.
  | Original multipole sum: apparent total charge =   0.175489E-14
  | Sum of charges compensated after spline to logarithmic grids =   0.134165E-03
  | Analytical far-field extrapolation by fixed multipoles:
  | Hartree multipole sum: apparent total charge =   0.193217E-14
  Summing up the Hartree potential.
  Calculating dipole correction via potential gradient
  Time summed over all CPUs for potential: real work        0.013 s, elapsed        0.022 s
  | RMS charge density error from multipole expansion :   0.248428E-01
  | Average real-space part of the electrostatic potential :      0.03060305 eV

  Integrating Hamiltonian matrix: batch-based integration.
  Time summed over all CPUs for integration: real work        1.378 s, elapsed        2.134 s => Consider using load balancing!

  Updating Kohn-Sham eigenvalues and eigenvectors using ELSI and the (modified) LAPACK eigensolver.

  Obtaining occupation numbers and electronic chemical potential using ELSI.
  | Note that, for insulating systems, the printed 'chemical potential' value is not uniquely defined.
  | It can be anywhere in the energy gap, as long as it correctly separates occupied and unoccupied states.
  | In systems with a gap, the physically relevant chemical potential is the VBM or HOMO.

  | Chemical potential (Fermi level):    -4.24327182 eV
  What follows are estimated values for band gap, HOMO, LUMO, etc.
  | They are estimated on a discrete k-point grid and not necessarily exact.
  | For converged numbers, create a DOS and/or band structure plot on a denser k-grid.

  Highest occupied state (VBM) at     -5.15853218 eV (relative to internal zero)
  | Occupation number:      2.00000000
  | K-point:      23 at    0.375000    0.750000    0.000000 (in units of recip. lattice)

  Lowest unoccupied state (CBM) at    -3.32801146 eV (relative to internal zero)
  | Occupation number:      0.00000000
  | K-point:      23 at    0.375000    0.750000    0.000000 (in units of recip. lattice)

  The gap value is above 0.2 eV. Unless you are using a very sparse k-point grid,
  this system is most likely an insulator or a semiconductor.
  ESTIMATED overall HOMO-LUMO gap:      1.83052072 eV between HOMO at k-point 23 and LUMO at k-point 23
  | This appears to be a direct band gap.

  Checking to see if s.c.f. parameters should be adjusted.
  The system likely has a gap. Increased the default Pulay mixing parameter (charge_mix_param). Value:   0.200000 .
  Kept the default occupation width. Value:   0.010000 eV.

  Total energy components:
  | Sum of eigenvalues            :         -87.16701108 Ha       -2371.93505415 eV
  | XC energy correction          :         -21.67603028 Ha        -589.83479425 eV
  | XC potential correction       :          27.84836463 Ha         757.79255766 eV
  | Free-atom electrostatic energy:         -66.78690817 Ha       -1817.36423790 eV
  | Hartree energy correction     :          -4.65893882 Ha        -126.77617566 eV
  | Entropy correction            :          -0.00000000 Ha          -0.00000000 eV
  | ---------------------------
  | Total energy                  :        -152.44052372 Ha       -4148.11770431 eV
  | Total energy, T -> 0          :        -152.44052372 Ha       -4148.11770431 eV  <-- do not rely on this value for anything but (periodic) metals
  | Electronic free energy        :        -152.44052372 Ha       -4148.11770431 eV

  Derived energy quantities:
  | Kinetic energy                :         152.68088373 Ha        4154.65823302 eV
  | Electrostatic energy          :        -283.44537718 Ha       -7712.94114308 eV
  | Energy correction for multipole
  | error in Hartree potential    :           0.05895017 Ha           1.60411586 eV
  | Sum of eigenvalues per atom                           :        -592.98376354 eV
  | Total energy (T->0) per atom                          :       -1037.02942608 eV  <-- do not rely on this value for anything but (periodic) metals
  | Electronic free energy per atom                       :       -1037.02942608 eV
  Evaluating new KS density using the density matrix
  Evaluating density matrix
  Time summed over all CPUs for getting density from density matrix: real work        1.950 s, elapsed        2.949 s
  Integration grid: deviation in total charge (<rho> - N_e) =   0.000000E+00

  Self-consistency convergence accuracy:
  | Change of charge density      :  0.2918E+00
  | Change of unmixed KS density  :  0.4527E-02
  | Change of sum of eigenvalues  :  0.1196E+03 eV
  | Change of total energy        :  0.1812E+01 eV


------------------------------------------------------------
  End self-consistency iteration #     2       :  max(cpu_time)    wall_clock(cpu1)
  | Time for this iteration                     :        0.161 s           0.160 s
  | Charge density update                       :        0.048 s           0.048 s
  | Density mixing & preconditioning            :        0.044 s           0.044 s
  | Hartree multipole update                    :        0.001 s           0.001 s
  | Hartree multipole summation                 :        0.027 s           0.026 s
  | Integration                                 :        0.036 s           0.036 s
  | Solution of K.-S. eqns.                     :        0.004 s           0.004 s
  | Total energy evaluation                     :        0.000 s           0.000 s

  Partial memory accounting:
  | Current value for overall tracked memory usage:
  |   Minimum:        1.914 MB (on task 62)
  |   Maximum:        1.982 MB (on task 26)
  |   Average:        1.946 MB
  | Peak value for overall tracked memory usage:
  |   Minimum:        6.053 MB (on task 47 after allocating gradient_basis_wave)
  |   Maximum:        9.673 MB (on task  0 after allocating gradient_basis_wave)
  |   Average:        8.416 MB
  | Largest tracked array allocation so far:
  |   Minimum:        1.403 MB (gradient_basis_wave on task 47)
  |   Maximum:        3.303 MB (gradient_basis_wave on task  0)
  |   Average:        2.577 MB
  Note:  These values currently only include a subset of arrays which are explicitly tracked.
  The "true" memory usage will be greater.
------------------------------------------------------------

------------------------------------------------------------
          Begin self-consistency iteration #    3

  Date     :  20250806, Time     :  170808.215
------------------------------------------------------------
  Pulay mixing of updated and previous charge densities.
  Available memory per node after mixing [GB]:   1022.49
  Renormalizing the density to the exact electron count on the 3D integration grid.
  | Formal number of electrons (from input files) :      24.0000000000
  | Integrated number of electrons on 3D grid     :      24.0022384678
  | Charge integration error                      :       0.0022384678
  | Normalization factor for density and gradient :       0.9999067392

  Evaluating partitioned Hartree potential by multipole expansion.
  | Original multipole sum: apparent total charge =   0.175427E-14
  | Sum of charges compensated after spline to logarithmic grids =   0.115932E-03
  | Analytical far-field extrapolation by fixed multipoles:
  | Hartree multipole sum: apparent total charge =   0.185348E-14
  Summing up the Hartree potential.
  Calculating dipole correction via potential gradient
  Time summed over all CPUs for potential: real work        0.013 s, elapsed        0.030 s
  | RMS charge density error from multipole expansion :   0.256147E-01
  | Average real-space part of the electrostatic potential :      0.03011684 eV

  Integrating Hamiltonian matrix: batch-based integration.
  Time summed over all CPUs for integration: real work        1.334 s, elapsed        1.901 s => Consider using load balancing!

  Updating Kohn-Sham eigenvalues and eigenvectors using ELSI and the (modified) LAPACK eigensolver.

  Obtaining occupation numbers and electronic chemical potential using ELSI.
  | Note that, for insulating systems, the printed 'chemical potential' value is not uniquely defined.
  | It can be anywhere in the energy gap, as long as it correctly separates occupied and unoccupied states.
  | In systems with a gap, the physically relevant chemical potential is the VBM or HOMO.

  | Chemical potential (Fermi level):    -4.86625934 eV
  What follows are estimated values for band gap, HOMO, LUMO, etc.
  | They are estimated on a discrete k-point grid and not necessarily exact.
  | For converged numbers, create a DOS and/or band structure plot on a denser k-grid.

  Highest occupied state (VBM) at     -5.78006071 eV (relative to internal zero)
  | Occupation number:      2.00000000
  | K-point:      23 at    0.375000    0.750000    0.000000 (in units of recip. lattice)

  Lowest unoccupied state (CBM) at    -3.95245796 eV (relative to internal zero)
  | Occupation number:      0.00000000
  | K-point:      23 at    0.375000    0.750000    0.000000 (in units of recip. lattice)

  The gap value is above 0.2 eV. Unless you are using a very sparse k-point grid,
  this system is most likely an insulator or a semiconductor.
  ESTIMATED overall HOMO-LUMO gap:      1.82760274 eV between HOMO at k-point 23 and LUMO at k-point 23
  | This appears to be a direct band gap.

  Total energy components:
  | Sum of eigenvalues            :         -87.86506978 Ha       -2390.93019781 eV
  | XC energy correction          :         -21.63633732 Ha        -588.75469391 eV
  | XC potential correction       :          27.79828120 Ha         756.42971822 eV
  | Free-atom electrostatic energy:         -66.78690817 Ha       -1817.36423790 eV
  | Hartree energy correction     :          -3.94999111 Ha        -107.48472699 eV
  | Entropy correction            :          -0.00000000 Ha          -0.00000000 eV
  | ---------------------------
  | Total energy                  :        -152.44002518 Ha       -4148.10413839 eV
  | Total energy, T -> 0          :        -152.44002518 Ha       -4148.10413839 eV  <-- do not rely on this value for anything but (periodic) metals
  | Electronic free energy        :        -152.44002518 Ha       -4148.10413839 eV

  Derived energy quantities:
  | Kinetic energy                :         152.35408425 Ha        4145.76556663 eV
  | Electrostatic energy          :        -283.15777211 Ha       -7705.11501111 eV
  | Energy correction for multipole
  | error in Hartree potential    :           0.06088852 Ha           1.65686085 eV
  | Sum of eigenvalues per atom                           :        -597.73254945 eV
  | Total energy (T->0) per atom                          :       -1037.02603460 eV  <-- do not rely on this value for anything but (periodic) metals
  | Electronic free energy per atom                       :       -1037.02603460 eV
[...]

  | Chemical potential (Fermi level):    -4.69768704 eV
  What follows are estimated values for band gap, HOMO, LUMO, etc.
  | They are estimated on a discrete k-point grid and not necessarily exact.
  | For converged numbers, create a DOS and/or band structure plot on a denser k-grid.

  Highest occupied state (VBM) at     -5.61225729 eV (relative to internal zero)
  | Occupation number:      2.00000000
  | K-point:      22 at    0.375000    0.625000    0.000000 (in units of recip. lattice)

  Lowest unoccupied state (CBM) at    -3.78311678 eV (relative to internal zero)
  | Occupation number:      0.00000000
  | K-point:      23 at    0.375000    0.750000    0.000000 (in units of recip. lattice)

  The gap value is above 0.2 eV. Unless you are using a very sparse k-point grid,
  this system is most likely an insulator or a semiconductor.
  ESTIMATED overall HOMO-LUMO gap:      1.82914051 eV between HOMO at k-point 22 and LUMO at k-point 23
  | This appears to be an indirect band gap.
  | Smallest direct gap :      1.82914051 eV for k_point 22 at    0.375000    0.625000    0.000000 (in units of recip. lattice)

  Total energy components:
  | Sum of eigenvalues            :         -87.73676440 Ha       -2387.43883086 eV
  | XC energy correction          :         -21.63004423 Ha        -588.58345025 eV
  | XC potential correction       :          27.79083028 Ha         756.22696842 eV
  | Free-atom electrostatic energy:         -66.78690817 Ha       -1817.36423790 eV
  | Hartree energy correction     :          -4.07696558 Ha        -110.93987808 eV
  | Entropy correction            :          -0.00000000 Ha          -0.00000000 eV
  | ---------------------------
  | Total energy                  :        -152.43985210 Ha       -4148.09942867 eV
  | Total energy, T -> 0          :        -152.43985210 Ha       -4148.09942867 eV  <-- do not rely on this value for anything but (periodic) metals
  | Electronic free energy        :        -152.43985210 Ha       -4148.09942867 eV

  Derived energy quantities:
  | Kinetic energy                :         152.10979073 Ha        4139.11800186 eV
  | Electrostatic energy          :        -282.91959861 Ha       -7698.63398028 eV
  | Energy correction for multipole
  | error in Hartree potential    :           0.06805104 Ha           1.85176313 eV
  | Sum of eigenvalues per atom                           :        -596.85970772 eV
  | Total energy (T->0) per atom                          :       -1037.02485717 eV  <-- do not rely on this value for anything but (periodic) metals
  | Electronic free energy per atom                       :       -1037.02485717 eV
  Preliminary charge convergence reached. Turning off preconditioner.


  Self-consistency convergence accuracy:
  | Change of charge density      :  0.1715E-06
  | Change of unmixed KS density  :  0.2843E-06
  | Change of sum of eigenvalues  : -0.7314E-04 eV
  | Change of total energy        :  0.3615E-07 eV

  Writing Kohn-Sham eigenvalues.
  K-point:       1 at    0.000000    0.000000    0.000000 (in units of recip. lattice)

  State    Occupation    Eigenvalue [Ha]    Eigenvalue [eV]
      1       2.00000          -9.940961         -270.50732
      2       2.00000          -9.940961         -270.50730
      3       2.00000          -9.939699         -270.47296
      4       2.00000          -9.939698         -270.47296
      5       2.00000          -0.898983          -24.46257
      6       2.00000          -0.893855          -24.32304
      7       2.00000          -0.471965          -12.84283
      8       2.00000          -0.435888          -11.86112
      9       2.00000          -0.289238           -7.87058
     10       2.00000          -0.289229           -7.87032
     11       2.00000          -0.288888           -7.86105
     12       2.00000          -0.288878           -7.86077
     13       0.00000           0.129207            3.51589
     14       0.00000           0.129215            3.51613
     15       0.00000           0.130095            3.54008
     16       0.00000           0.130108            3.54042
     17       0.00000           0.201895            5.49384
     18       0.00000           0.203577            5.53961
     19       0.00000           0.248624            6.76540
     20       0.00000           0.252799            6.87901
     21       0.00000           0.293465            7.98559
     22       0.00000           0.296527            8.06891
     23       0.00000           0.326679            8.88939
     24       0.00000           0.754231           20.52366
     25       0.00000           1.069212           29.09475
     26       0.00000           1.069220           29.09496
     27       0.00000           1.077662           29.32469
     28       0.00000           1.077683           29.32524
     29       0.00000           1.162114           31.62272

  What follows are estimated values for band gap, HOMO, LUMO, etc.
  | They are estimated on a discrete k-point grid and not necessarily exact.
  | For converged numbers, create a DOS and/or band structure plot on a denser k-grid.

  Highest occupied state (VBM) at     -5.61225729 eV (relative to internal zero)
  | Occupation number:      2.00000000
  | K-point:      22 at    0.375000    0.625000    0.000000 (in units of recip. lattice)

  Lowest unoccupied state (CBM) at    -3.78311678 eV (relative to internal zero)
  | Occupation number:      0.00000000
  | K-point:      23 at    0.375000    0.750000    0.000000 (in units of recip. lattice)

  The gap value is above 0.2 eV. Unless you are using a very sparse k-point grid,
  this system is most likely an insulator or a semiconductor.
  ESTIMATED overall HOMO-LUMO gap:      1.82914051 eV between HOMO at k-point 22 and LUMO at k-point 23
  | This appears to be an indirect band gap.
  | Smallest direct gap :      1.82914051 eV for k_point 22 at    0.375000    0.625000    0.000000 (in units of recip. lattice)

  | Chemical Potential                          :    -4.69768704 eV
  | Note that, for insulating systems, the printed 'chemical potential' value is not uniquely defined.
  | It can be anywhere in the energy gap, as long as it correctly separates occupied and unoccupied states.
  | In systems with a gap, the physically relevant chemical potential is the VBM or HOMO.

  Writing energy levels:
  | Potential vacuum level, "upper" slab surface    :    -0.13512849 eV
  | Potential vacuum level, "lower" slab surface    :    -0.13512849 eV
  | Work function ("upper" slab surface)            :     4.56255855 eV
  | Work function ("lower" slab surface)            :     4.56255855 eV
  *** Band gap may exist, work functions will also be defined using VBM and CBM.
  | VBM (reference: upper vacuum level)             :     5.47712881 eV
  | Work function ("upper" surface, reference: VBM) :     5.47712881 eV
  | Work function ("lower" surface, reference: VBM) :     5.47712881 eV
  | CBM (reference: upper vacuum level)             :     3.64798830 eV
  | Work function ("upper" surface, reference: CBM) :     3.64798830 eV
  | Work function ("lower" surface, reference: CBM) :     3.64798830 eV

  Self-consistency cycle converged.


------------------------------------------------------------
  End self-consistency iteration #    13       :  max(cpu_time)    wall_clock(cpu1)
  | Time for this iteration                     :        0.111 s           0.111 s
  | Charge density update                       :        0.000 s           0.000 s
  | Density mixing                              :        0.044 s           0.043 s
  | Hartree multipole update                    :        0.001 s           0.001 s
  | Hartree multipole summation                 :        0.028 s           0.028 s
  | Integration                                 :        0.034 s           0.034 s
  | Solution of K.-S. eqns.                     :        0.003 s           0.004 s
  | Total energy evaluation                     :        0.000 s           0.000 s

  Partial memory accounting:
  | Current value for overall tracked memory usage:
  |   Minimum:        1.915 MB (on task 62)
  |   Maximum:        1.982 MB (on task 26)
  |   Average:        1.946 MB
  | Peak value for overall tracked memory usage:
  |   Minimum:        6.053 MB (on task 47 after allocating gradient_basis_wave)
  |   Maximum:        9.673 MB (on task  0 after allocating gradient_basis_wave)
  |   Average:        8.416 MB
  | Largest tracked array allocation so far:
  |   Minimum:        1.403 MB (gradient_basis_wave on task 47)
  |   Maximum:        3.303 MB (gradient_basis_wave on task  0)
  |   Average:        2.577 MB
  Note:  These values currently only include a subset of arrays which are explicitly tracked.
  The "true" memory usage will be greater.
------------------------------------------------------------

  Energy and forces in a compact form:
  | Total energy uncorrected      :         -0.414809942866699E+04 eV
  | Total energy corrected        :         -0.414809942866699E+04 eV  <-- do not rely on this value for anything but (periodic) metals
  | Electronic free energy        :         -0.414809942866699E+04 eV

  Writing overlap using HDF5
  Writing Hamiltonian using HDF5
  ------------------------------------ 
  Start decomposition of the XC Energy 
  ------------------------------------ 
  X and C from original XC functional choice 
  Hartree-Fock Energy :          0.000000000 Ha              0.000000000 eV
  X Energy            :        -20.788508993 Ha           -565.684111394 eV
  C Energy            :         -0.841535235 Ha            -22.899338855 eV
  XC Energy w/o HF    :        -21.630044228 Ha           -588.583450249 eV
  Total XC Energy     :        -21.630044228 Ha           -588.583450249 eV
  ------------------------------------ 
  LDA X and C from self-consistent density 
  X Energy LDA        :        -18.866304805 Ha           -513.378274139 eV
  C Energy LDA        :         -1.592195171 Ha            -43.325835002 eV
  ------------------------------------ 
  End decomposition of the XC Energy 
  ------------------------------------ 

------------------------------------------------------------

  | Chemical Potential                          :    -4.69768704 eV
  | Note that, for insulating systems, the printed 'chemical potential' value is not uniquely defined.
  | It can be anywhere in the energy gap, as long as it correctly separates occupied and unoccupied states.
  | In systems with a gap, the physically relevant chemical potential is the VBM or HOMO.

  Writing energy levels:
  | Potential vacuum level, "upper" slab surface    :    -0.13512849 eV
  | Potential vacuum level, "lower" slab surface    :    -0.13512849 eV
  | Work function ("upper" slab surface)            :     4.56255855 eV
  | Work function ("lower" slab surface)            :     4.56255855 eV
  *** Band gap may exist, work functions will also be defined using VBM and CBM.
  | VBM (reference: upper vacuum level)             :     5.47712881 eV
  | Work function ("upper" surface, reference: VBM) :     5.47712881 eV
  | Work function ("lower" surface, reference: VBM) :     5.47712881 eV
  | CBM (reference: upper vacuum level)             :     3.64798830 eV
  | Work function ("upper" surface, reference: CBM) :     3.64798830 eV
  | Work function ("lower" surface, reference: CBM) :     3.64798830 eV

  -------------------------------------------------------------------
  Writing the requested band structure output (LAPACK version):
  -------------------------------------------------------------------


  Integrating Hamiltonian matrix: batch-based integration.
  Time summed over all CPUs for integration: real work        1.421 s, elapsed        2.330 s => Consider using load balancing!

  Treating all   11 k-points in band plot segment #   1:

  "Band gap" along reciprocal space direction number:    1
  | Lowest unoccupied state:      -4.38898531 eV
  | Highest occupied state :      -4.73622347 eV
  | Energy difference      :       0.34723817 eV


  Treating all    9 k-points in band plot segment #   2:

  "Band gap" along reciprocal space direction number:    2
  | Lowest unoccupied state:      -3.13342335 eV
  | Highest occupied state :      -6.94130419 eV
  | Energy difference      :       3.80788084 eV


  Treating all    6 k-points in band plot segment #   3:

  "Band gap" along reciprocal space direction number:    3
  | Lowest unoccupied state:      -4.38898531 eV
  | Highest occupied state :      -4.73622347 eV
  | Energy difference      :       0.34723817 eV

  "Band gap" of total set of bands:
  | Lowest unoccupied state:      -4.38898531 eV
  | Highest occupied state :      -4.73622347 eV
  | Energy difference      :       0.34723817 eV



  Band Structure                                          :  max(cpu_time) wall_clock(cpu1)
  | Total Time                                            :          0.045            0.046
------------------------------------------------------------

------------------------------------------------------------------------------
  Final output of selected total energy values:

  The following output summarizes some interesting total energy values
  at the end of a run (AFTER all relaxation, molecular dynamics, etc.).

  | Total energy of the DFT / Hartree-Fock s.c.f. calculation      :          -4148.099428667 eV
  | Final zero-broadening corrected energy (caution - metals only) :          -4148.099428667 eV
  | For reference only, the value of 1 Hartree used in FHI-aims is :             27.211384500 eV
  | For reference only, the overall average (free atom contribution
  | + realspace contribution) of the electrostatic potential after
  | s.c.f. convergence is                                          :             -0.900419695 eV

  Before relying on these values, please be sure to understand exactly which
  total energy value is referred to by a given number. Different objects may
  all carry the same name 'total energy'. Definitions:

  Total energy of the DFT / Hartree-Fock s.c.f. calculation:
  | Note that this energy does not include ANY quantities calculated after the
  | s.c.f. cycle, in particular not ANY RPA, MP2, etc. many-body perturbation terms.

  Final zero-broadening corrected energy:
  | For metallic systems only, a broadening of the occupation numbers at the Fermi
  | level can be extrapolated back to zero broadening by an electron-gas inspired
  | formula. For all systems that are not real metals, this value can be
  | meaningless and should be avoided.

------------------------------------------------------------------------------
  Methods described in the following list of references were used in this FHI-aims run.
  If you publish the results, please make sure to cite these reference if they apply.
  FHI-aims is an academic code, and for our developers (often, Ph.D. students
  and postdocs), scientific credit in the community is essential.
  Thank you for helping us!

  For any use of FHI-aims, please cite:

    Volker Blum, Ralf Gehrke, Felix Hanke, Paula Havu, Ville Havu,
    Xinguo Ren, Karsten Reuter, and Matthias Scheffler
    'Ab initio molecular simulations with numeric atom-centered orbitals'
    Computer Physics Communications 180, 2175-2196 (2009)
    http://doi.org/10.1016/j.cpc.2009.06.022


  The provided symmetry information was generated with SPGlib:

    Atsushi Togo, Yusuke Seto, Dimitar Pashov
    SPGlib 1.7.3 obtained from http://spglib.sourceforge.net
    Licence: New BSD license
    Copyright (C) 2008 Atsushi Togo


  The ELSI infrastructure was used in your run to solve the Kohn-Sham electronic structure.
  Please check out https://wordpress.elsi-interchange.org to learn more.
  If scalability is important for your project, please acknowledge ELSI by citing:

    V. W-z. Yu, F. Corsetti, A. Garcia, W. P. Huhn, M. Jacquelin, W. Jia,
    B. Lange, L. Lin, J. Lu, W. Mi, A. Seifitokaldani, A. Vazquez-Mayagoitia,
    C. Yang, H. Yang, and V. Blum
    'ELSI: A unified software interface for Kohn-Sham electronic structure solvers'
    Computer Physics Communications 222, 267-285 (2018).
    http://doi.org/10.1016/j.cpc.2017.09.007


  For the real-space grid partitioning and parallelization used in this calculation, please cite:

    Ville Havu, Volker Blum, Paula Havu, and Matthias Scheffler,
    'Efficient O(N) integration for all-electron electronic structure calculation'
    'using numerically tabulated basis functions'
    Journal of Computational Physics 228, 8367-8379 (2009).
    http://doi.org/10.1016/j.jcp.2009.08.008

  Of course, there are many other important community references, e.g., those cited in the
  above references. Our list is limited to references that describe implementations in the
  FHI-aims code. The reason is purely practical (length of this list) - please credit others as well.
------------------------------------------------------------
Warnings summary:

At least    1 warnings were raised during execution.
 * A warning was issued further up regarding the CPU load.
** END OF WARNING
   Some CPUs do not participate in the eigenvalue solution.
   In corner cases, this may be the correct behavior. Otherwise,
   consider using a scalapack/elpa version of the code for a parallel treatment.
** END OF WARNING

------------------------------------------------------------
          Leaving FHI-aims.
          Date     :  20250806, Time     :  170811.375

          Computational steps:
          | Number of self-consistency cycles          :           13
          | Number of SCF (re)initializations          :            1

          Detailed time accounting                     :  max(cpu_time)    wall_clock(cpu1)
          | Total time                                  :        4.966 s           6.670 s
          | Preparation time                            :        0.088 s           0.091 s
          | Boundary condition initalization            :        0.328 s           0.720 s
          | Grid partitioning                           :        0.091 s           0.089 s
          | Preloading free-atom quantities on grid     :        0.087 s           0.114 s
          | Free-atom superposition energy              :        0.014 s           0.014 s
          | Total time for integrations                 :        0.530 s           0.552 s
          | Total time for solution of K.-S. equations  :        0.093 s           0.100 s
          | Total time for density update               :        0.646 s           0.653 s
          | Total time for mixing & preconditioning     :        0.595 s           0.587 s
          | Total time for Hartree multipole update     :        0.014 s           0.014 s
          | Total time for Hartree multipole sum        :        0.387 s           0.410 s
          | Total time for total energy evaluation      :        0.004 s           0.005 s
          | Total time for scaled ZORA corrections      :        0.000 s           0.000 s
          | Total time for band structures, DOS         :        0.046 s           0.046 s

          Partial memory accounting:
          | Residual value for overall tracked memory usage across tasks:     0.000000 MB (should be 0.000000 MB)
          | Peak values for overall tracked memory usage:
          |   Minimum:        6.053 MB (on task 47 after allocating gradient_basis_wave)
          |   Maximum:        9.673 MB (on task  0 after allocating gradient_basis_wave)
          |   Average:        8.416 MB
          | Largest tracked array allocation:
          |   Minimum:        1.403 MB (gradient_basis_wave on task 47)
          |   Maximum:        3.303 MB (gradient_basis_wave on task  0)
          |   Average:        2.577 MB
          Note:  These values currently only include a subset of arrays which are explicitly tracked.
          The "true" memory usage will be greater.

          Have a nice day.
------------------------------------------------------------
